# vtk DataFile Version 3.0
File created by libpointmatcher
ASCII
DATASET POLYDATA
POINTS 14778 float
    4.91127    -2.77108     5.90195
     5.9861    -2.93328     5.86317
    6.70744    -3.03236     5.84269
    5.83615    -2.47426     6.07259
    5.88968    -2.29956     6.10709
    6.11218    -2.18534     6.17548
    6.10753    -2.05189     6.19024
    6.28845    -2.11665     6.23095
    4.94359    -2.55159     5.90011
     4.9618    -2.55312     5.90086
    5.31799    -2.39987     5.94222
    5.07729     -2.2624     5.90612
    5.16996    -2.27227      5.9269
    5.39926    -2.35934     5.96853
    5.45606     -2.3485     5.98327
    5.40573    -2.25311     5.98393
    6.05065     -2.0407     6.18475
    6.21945     -1.9844     6.23826
    6.18661    -1.87765     6.24234
    5.31131    -2.11612     5.98657
    5.35788    -2.14647      5.9915
    5.54736     -2.1486     6.03956
    5.53079     -2.0689     6.04632
    5.55992    -2.09904      6.0488
    5.67665    -1.96441     6.09662
    5.66715    -1.82624     6.11112
     5.8477    -2.01209     6.13153
    5.81205    -1.94138     6.13289
    5.84901    -2.01249     6.13445
    5.76912    -1.79543     6.14244
    5.90333    -1.98345     6.15033
    6.04049     -1.8775       6.203
    6.05418    -1.87173     6.20808
    6.02383    -1.74602     6.21652
     6.2946    -1.77544     6.28474
     6.4566    -1.58762     6.35362
    5.20472    -1.70299     5.86943
    5.23672    -1.61167     5.86543
    5.45872    -1.18402     5.85118
      6.267    -2.21039     6.21227
    6.24615    -2.22075     6.20506
    6.36924    -2.11018     6.25454
    6.57886    -2.06957     6.31637
    6.48258    -2.20057     6.27228
    6.55473    -2.14788     6.29974
    6.48313    -2.18233     6.27603
     6.5574    -2.07642     6.31278
    6.74918    -2.06763     6.36448
    6.71443    -1.93917      6.3757
    6.29592    -2.13843     6.23932
    6.46352    -2.23543     6.26822
    6.40014    -2.26298     6.24944
    5.96675    -2.14048     6.14514
    5.98531    -2.17148     6.14625
    5.96923    -2.15024     6.14559
    5.97721    -2.22525     6.16126
    6.23748    -2.02841     6.22471
    6.19562    -2.13863     6.20044
    6.19417    -2.11103     6.20375
     6.2024    -2.12826     6.20329
    6.17562    -2.05764     6.20664
    6.24897    -1.97326     6.23805
    6.45877    -1.88164     6.31175
    6.58827    -1.88711     6.34479
    6.37701    -2.00652     6.27255
    6.41923    -1.95601     6.29183
    6.49509    -1.87477     6.32317
    6.64309    -1.89641     6.36355
    6.29109    -2.11484     6.24188
     6.3557    -2.08348     6.26367
      6.095    -2.08695     6.19887
    7.62143     -2.3259     6.43871
    6.79194     -1.7378     6.42058
    6.85143    -1.81906     6.42552
    6.89398    -1.70596     6.44996
    7.07307    -1.75485     6.48981
    7.08429    -1.78685     6.48781
    6.98831    -1.72021     6.47318
    7.00755    -1.85404     6.45849
    5.80467    -2.12897     6.12928
    5.98191    -2.09228     6.17944
    6.15391    -1.90425     6.21818
    6.14751    -1.99315     6.21921
    6.21448    -1.98957     6.23644
    6.10918    -2.04001     6.21036
    6.26906    -1.95629     6.26089
    6.07927    -2.04726     6.20576
    5.92404    -1.67239     6.20495
    6.29035    -1.71391     6.28631
    6.07922    -1.58574     6.25154
    6.06198    -1.69452     6.23115
    6.13702    -1.64683     6.26123
    6.23381    -1.58186     6.29619
    6.23357    -1.63458     6.28871
    6.20073    -1.53712     6.29503
     6.2215       -1.61     6.29083
    6.23119    -1.54757     6.30301
    6.25466    -1.59546     6.30243
    6.00711    -1.63314     6.23241
    6.42526    -1.76383     6.31616
    6.46716    -1.48394     6.36825
    6.39506    -1.75099     6.31066
    6.52792    -1.74691     6.34604
      6.441    -1.57481     6.34905
    6.33721    -1.61064     6.31644
    6.49294    -1.50869     6.37385
    6.42177    -1.48912     6.35721
    6.53868    -1.65395     6.36601
    6.40683    -1.88759     6.29768
    6.46963    -1.86712     6.31676
    6.51129    -1.83884     6.33348
    6.61762    -1.78918     6.36871
    6.47059    -1.85838     6.32226
    6.80393    -1.49543     6.45213
    6.82712     -1.6495     6.43728
    6.79801    -1.39755     6.46379
     6.7963    -1.35717     6.47138
    6.61978    -1.49003     6.40901
     6.7391    -1.72961     6.40672
    6.81954    -1.34881     6.48059
     6.5864    -1.88276     6.33889
    6.89076    -1.91068     6.41198
    6.86936    -1.91947     6.40535
    6.99756    -1.80114     6.45732
    6.90746    -1.72444     6.44526
    7.14443    -1.77551     6.50229
     7.0817    -1.66652     6.50512
    6.96497    -1.94579     6.43401
     7.0392    -1.89882     6.46369
    7.00069    -1.91238     6.45396
    7.13247    -1.75915     6.51078
    6.91591    -1.98267     6.42314
    6.53427    -1.86144     6.33385
    6.55723    -1.85322     6.33843
    6.59909    -1.80428     6.35143
    6.69511    -1.79615     6.38089
    6.56709    -1.72661     6.38301
    6.82488    -1.70864     6.41656
    6.83334    -1.63417     6.43184
    6.83666    -1.73174     6.43375
    6.80382      -1.677     6.43434
    6.80424    -1.74677     6.42935
    6.74223    -1.75774     6.41843
     6.6263     -1.5748     6.40586
    6.78566    -1.50292     6.45451
     6.8031    -1.43132     6.45855
    6.85673    -1.36235     6.48377
    6.89146     -1.3197     6.50456
    6.96348    -1.44468     6.50609
    6.81326    -1.24361     6.49793
    6.89048     -1.2618     6.51532
    6.82486    -1.35553     6.48605
    5.74103   -0.839388     6.33045
    5.72871   -0.859651     6.32612
    5.70873   -0.880907     6.34752
    5.57914   -0.204195      6.3794
    7.13808    -1.75604     6.54317
    7.86696    -1.87805     6.36909
    6.99662    -1.66202     6.51744
    7.00179    -1.59441     6.53017
    6.99949     -1.5652     6.53416
     7.2494    -1.36028     6.33803
    7.27475    -1.48685     6.33011
    7.27295    -1.40443     6.34263
    7.12102    -1.65557     6.54884
    7.08778    -1.66137      6.5411
    7.55368    -1.35718     6.33483
     7.5467    -1.40058     6.33007
    7.53037    -1.39484     6.33255
    7.49032    -1.27141     6.33642
    7.55014    -1.39978     6.33523
    7.47119    -1.46126     6.34381
    7.24437    -1.19472     6.34088
     7.3984    -1.16681      6.3348
    7.33649    -1.17784     6.34681
    7.49052    -1.16978      6.3383
      7.728   -0.535156     6.29823
    7.84376   -0.747263     6.30318
    5.04942   -0.542703      6.6109
      5.874   -0.416935     6.37081
    5.50345     -4.3986      5.8885
    5.73226     -2.5772     6.04105
    5.86342    -2.39206     6.09122
    5.70682    -2.39284     6.06152
    5.97297     -2.3824     6.12273
    5.95279    -2.31175     6.12683
    6.00391    -2.33024     6.13722
    6.11861    -2.38612     6.16294
    5.40414    -2.48195     5.95712
     5.6943    -2.39571     6.04015
    5.64934    -2.26745     6.04601
    5.42838    -2.34539     5.98718
    5.40111     -2.3143     5.98662
    5.44005    -2.27083     6.02335
    5.45936    -2.22521     6.01079
    5.49501    -2.25148     6.04018
    5.74165    -2.18847     6.07952
    5.80345    -2.13659      6.1047
    5.81363    -2.16359     6.10535
    5.86736    -2.01002     6.14799
    5.87968    -2.01407     6.15107
    5.94344    -2.03888      6.1634
    5.98338    -2.01607      6.1799
    5.55391    -2.10048      6.0454
    5.51125    -2.12556     6.03397
    5.59278    -1.97754     6.08086
     5.6458    -2.08069     6.08196
    5.52632    -1.89685     6.07801
    5.93387    -1.89504     6.18106
    5.88772    -1.85467     6.17556
    7.24997    -3.00409     5.84751
    6.78503    -2.97533     5.85602
    6.19268    -2.38182     6.18257
    6.44156    -2.17007     6.27572
    6.51599    -2.13125     6.29772
    7.00007    -2.01896     6.41001
    6.09547    -2.09366     6.19037
    6.15289    -1.80822     6.24934
    6.21533    -1.90084     6.25276
    6.17247    -1.74732     6.26353
    6.28752    -1.90183     6.26903
    6.41919     -2.0011     6.29253
    6.47461    -1.72713     6.34072
    6.57775    -1.89546      6.3431
    6.58222    -1.75017     6.36534
    6.65133    -1.80802     6.37575
    6.74019    -1.87437     6.39367
    6.70455    -1.66344       6.409
    6.74296    -1.69551     6.41501
    6.76109    -1.53171     6.44517
    6.84223    -1.53193     6.46618
    6.06306    -1.61025     6.25603
    6.37018    -1.56616     6.33738
    6.34304    -1.54488     6.33396
    6.26591    -1.53031     6.31732
    6.28603    -1.49089     6.32847
    6.47778    -1.46164     6.38324
     3.4198    -4.47329     5.91255
    3.33262    -4.95104     5.92695
    3.59985    -5.22413     5.97715
    4.91722    -3.25018     5.89889
    4.83313    -3.33645     5.90272
    4.83101    -3.75855     5.89758
    4.95123    -3.45086     5.89679
    4.77745    -3.71931     5.89991
    4.95427    -3.61692     5.89849
    4.96657    -3.28108     5.89737
    4.94217    -3.38181     5.89753
    5.00563    -3.20987     5.89821
    4.80596    -2.84735     5.91631
     4.8619    -2.88526      5.9152
    4.94813    -2.92471     5.91671
    5.23829    -4.32958     5.89572
    5.12937    -3.79963     5.89117
    5.28842    -3.96187     5.88985
    5.40437    -4.01628     5.89222
    5.58924    -3.82125     5.89332
    5.70552    -4.23411     6.09238
    5.42469    -3.47716     5.88966
    5.87542    -3.44243     5.88199
    5.42696    -3.50332     5.89262
    5.44492    -3.56772     5.89065
    5.71506    -3.72636     5.88898
    5.99723     -3.5576     5.97914
    6.14698    -3.88407     5.98956
    6.04389    -3.88042     6.00614
    4.94947    -2.83962     5.90956
    5.42835    -2.02435     6.03679
    5.54806    -2.00018     6.07692
    5.42164     -3.0367     5.88458
    5.16626    -2.86516     5.88864
    5.26474     -3.0388      5.8895
    5.36669    -2.96897     5.88878
    5.75232    -2.51069     6.04974
[...]
POINT_DATA 14778
SCALARS stick float
LOOKUP_TABLE default
105.368
70.2821
33.1644
86.4668
87.3401
55.7337
49.7787
44.2436
103.392
111.029
120.284
116.096
116.385
112.31
106.487
112.709
55.5874
46.513
42.0784
116.44
113.299
101.955
98.5207
98.4974
81.9674
76.3009
71.5933
71.8079
71.8714
67.3807
66.8404
47.2298
45.9199
40.1803
41.1722
53.0709
94.9623
83.7574
49.7771
45.6593
47.3995
45.5428
48.7349
42.6022
44.1799
44.3734
48.2738
49.7307
56.5435
46.5182
43.4084
41.0629
65.5197
66.2264
68.1446
66.7727
46.4491
49.736
49.6989
49.5249
48.758
45.3372
52.0089
57.483
45.3958
46.7323
54.553
58.4438
46.5014
45.6098
54.0667
78.1298
61.7853
61.0191
65.4434
64.105
64.4528
58.5116
59.2255
80.5219
59.0085
37.9654
47.9845
46.5848
51.3571
44.483
51.7704
44.8452
42.1492
39.5736
37.6153
37.7109
44.0891
41.3556
45.0884
42.3686
46.3431
44.5239
40.4149
50.5887
55.1247
48.9959
57.2365
53.1073
47.8084
56.2864
55.76
58.5375
48.2156
51.9596
57.1962
61.3698
51.8333
63.2955
64.1187
65.7851
63.2259
58.2286
62.0919
66.1461
52.8722
54.4042
54.6021
60.4471
65.5921
67.1928
65.4698
59.0625
61.3031
58.2338
65.7088
53.7075
57.6585
58.0646
58.732
62.3615
55.3449
61.61
62.6657
64.6973
64.8952
61.7144
58.9388
61.4524
64.341
64.6063
67.7557
69.1107
63.7579
70.8699
72.8929
64.5378
138.252
141.099
134.886
7.03669
63.9129
32.9445
56.2414
60.5845
60.127
33.4596
33.7538
36.895
63.9054
62.4869
23.6716
25.0641
25.8754
27.0573
25.9912
27.5332
30.8455
27.289
32.7281
24.0683
9.62916
9.22701
0.474123
54.8691
23.8472
98.7732
90.6054
95.849
75.803
77.5254
70.2137
58.8551
113.473
97.5113
97.92
108.003
108.815
105.319
108.183
106.74
92.4099
85.5966
85.5771
70.6913
69.44
67.1787
60.2991
99.1553
102.705
88.1443
91.9653
85.6397
59.0767
60.6553
6.48253
22.3706
53.1326
40.7388
47.814
56.1729
53.6334
39.122
43.1306
36.7181
41.9085
45.9476
54.4943
56.6545
60.1156
62.0736
59.4125
63.2765
61.4857
63.267
64.6733
34.1897
49.8303
49.0424
47.4545
49.7343
55.1489
36.9977
26.8467
14.0432
85.9261
77.2189
47.6997
67.0656
52.0424
52.8279
84.9354
74.6092
92.2222
94.3484
101.013
101.833
31.046
32.2057
27.9897
22.4661
26.5304
9.78904
69.6137
86.6899
65.1462
58.2146
35.7812
70.3824
15.629
14.0126
104.393
95.166
87.5745
109.81
112.211
108.638
107.909
95.2956
83.5869
73.6792
78.0329
49.1201
60.2523
45.2115
50.3693
51.0347
59.8463
92.6923
92.5666
80.805
48.7127
34.9218
54.4035
40.7419
45.2726
6.87722
47.0209
51.8689
59.7251
60.7353
77.8235
74.3932
47.342
48.4053
46.131
46.1803
29.8735
29.2103
29.0992
25.6497
21.1252
51.374
51.7767
47.2413
45.5852
49.1912
21.3324
26.6231
36.148
11.9965
25.1513
20.7141
7.4905
21.195
25.7304
25.491
19.8667
16.4379
20.6646
149.581
44.6939
46.295
52.0799
47.8599
46.9538
37.2117
33.7338
21.3705
21.0179
20.5081
23.3668
20.8594
18.3189
21.4568
20.1586
30.7077
21.0228
27.0123
23.1318
25.2951
22.0915
18.1479
18.4396
18.5257
27.6954
21.8793
21.205
21.9547
23.0194
23.9936
8.58521
13.2024
14.2628
14.8422
12.7846
2.95754
2.97199
63.6937
65.1258
63.2214
71.6596
61.2374
58.6119
66.4299
64.79
79.8342
74.7364
70.9844
71.2169
69.9937
61.2633
59.146
54.8711
59.385
57.4766
71.1795
59.854
66.9312
74.8167
55.4886
56.7652
63.0351
53.7515
53.1153
66.9104
77.0396
70.1971
132.046
140.022
118.101
145.05
85.4282
87.1427
84.0488
115.308
125.177
75.2787
79.0667
76.0637
109.738
56.4388
86.1625
96.4361
84.7789
103.169
101.295
78.0809
68.1923
116.909
104.674
114.924
114.098
82.8405
82.7315
107.912
101.394
87.7472
75.3914
81.399
109.202
100.297
97.9986
96.0535
87.9687
69.238
66.9566
71.1919
68.1692
80.5351
80.6856
83.5033
85.0895
85.5993
76.4567
81.1823
102.637
65.1973
66.762
60.2038
62.7672
68.7049
62.2385
63.8389
62.6915
54.9156
56.8665
64.1046
63.6898
61.0118
68.2994
64.5227
65.8773
59.0322
69.9518
70.1583
58.3601
64.2579
57.4392
65.7474
74.5815
76.0424
84.5823
104.78
107.953
116.143
103.046
121.631
123.816
70.2136
65.1632
69.2311
69.5851
72.7973
65.8444
64.3857
62.0876
98.9712
105.841
90.3824
86.8016
93.2252
99.0131
94.41
132.457
104.84
150.373
69.6881
0.0441445
97.2558
78.3374
101.109
97.5708
102.759
74.4164
74.7131
81.0276
86.226
120.101
113.767
110.078
111.705
40.7001
23.7501
42.8785
55.2425
37.5543
74.4055
83.6167
85.7626
90.3839
93.375
89.6342
81.9521
84.5843
76.9892
121.642
113.29
96.69
118.62
127.29
106.654
113.258
121.493
105.021
92.0403
121.959
125.654
120.892
113.226
104.386
143.545
139.753
186.596
154.902
131.377
132.329
127.635
122.542
122.588
147.596
132.304
145.279
147.321
140.173
134.265
143.798
137.358
36.3359
24.1832
156.204
161.886
138.683
142.652
131.36
163.242
156.194
152.683
86.41
149.046
125.976
109.994
92.739
115.946
98.1174
84.9259
87.0329
80.3812
77.0467
66.1621
88.9165
84.4502
87.877
73.8638
69.5997
73.4947
66.2546
41.7045
8.42797
50.7272
58.9249
37.5388
34.9475
28.3918
79.3771
59.4813
52.0847
60.125
26.229
33.9193
26.6066
36.1503
23.2299
3.82948
59.6373
58.6637
63.5069
63.3373
37.8326
51.9487
42.4339
37.2702
40.3389
38.5877
32.9611
23.8067
24.6098
29.044
24.6035
22.5955
84.0665
66.1509
62.6589
77.9378
92.9257
92.5765
101.017
105.058
61.033
61.176
45.5173
46.9876
29.5822
27.5063
32.6181
32.0021
41.3491
43.478
60.9308
44.0447
27.0234
35.0556
69.4843
57.651
65.9534
55.0493
49.3508
52.124
51.7545
41.3226
38.4596
26.4218
13.2083
132.462
104.793
107.86
122.295
125.683
127.48
43.8521
37.1337
48.8024
53.4823
72.2434
89.0243
71.3279
74.112
81.1722
86.5968
86.9667
99.9576
99.9491
87.8989
86.3181
84.3695
84.514
96.4056
103.016
87.132
102.732
109.487
110.152
112.513
113.154
110.291
110.274
108.317
111.069
63.6765
64.8869
87.3985
89.3243
79.4994
89.848
95.1019
98.4388
95.4941
90.2522
100.031
95.0734
115.699
107.16
127.345
125.941
98.8551
102.78
138.649
133.7
130.132
129.965
129.859
129.615
128.267
121.58
117.451
125.865
131.388
125.739
119.739
126.338
127.603
137.522
135.648
131.594
138.812
151.379
137.573
155.17
179.844
169.903
197.045
157.861
123.362
118.115
117.338
117.524
117.517
121.246
120.365
121.605
117.952
122.475
120.367
134.241
122.486
132.617
128.319
149.357
131.771
106.42
123.257
123.996
122.648
129.403
138.89
124.159
147.929
154.252
162.839
149.163
165.751
179.955
180.537
184.172
159.494
165.371
180.841
186.569
220.375
33.7256
29.8743
152.131
150.364
170.218
187.371
205.709
65.6437
92.5291
172.494
156.455
152.183
165.282
180.268
155.122
150.09
175.994
151.408
150.48
167.134
171.349
179.123
185.007
190.919
175.101
169.876
163.583
163.176
170.653
169.763
178.088
168.244
164.806
162.751
161.977
177.195
181.385
167.472
180.282
184.064
174.082
174.476
175.467
189.625
186.593
199.612
192.441
190.289
199.151
187.989
189.958
194.88
195.625
192.037
184.665
190.758
189.998
194.395
198.281
177.019
196.315
168.147
136.419
176.997
181.577
191.834
187.751
183.067
189.122
187.088
185.917
184.72
197.836
183.248
179.584
168.219
163.486
151.234
165.017
165.542
176.106
186.708
171.458
184.244
183.372
184.656
179.051
180.585
179.433
184.66
176.803
170.992
169.589
157.901
158.418
153.9
158.756
160.249
148.798
165.042
159.775
155.662
149.294
185.251
187.599
176.112
181.666
169.788
156.335
175.895
173.312
189.194
171.291
174.812
180.259
175.131
177.513
166.549
187.603
177.554
180.529
174.875
179.594
189.91
190.855
179.874
141.363
152.129
186.16
218.046
210.87
213.023
249.996
243.139
232.512
310.127
91.3165
63.0787
102.905
105.314
182.513
181.351
212.461
201.187
205.321
202.808
205.362
193.626
192.389
199.879
189.74
186.219
177.408
179.655
197.005
190.945
175.237
172.199
170.958
162.676
174.02
175.621
181.778
177.696
176.837
173.562
172.972
174.8
170.275
170.367
170.104
168.277
171.956
168.13
168.928
149.534
148.997
171.483
169.448
168.89
170.582
166.666
180.339
176.232
168.29
170.18
159.381
184.916
181.667
175.368
107.35
109.384
46.306
54.8692
214.965
201.439
204.311
163.781
170.801
168.966
175.697
159.132
154.341
148.241
159.948
151.037
143.563
182.935
178.265
177.462
199.867
186.236
176.581
190.678
181.822
170.411
172.423
169.189
149.102
156.484
195.384
153.022
148.54
165.776
157.358
158.842
192.514
170.607
246.279
201.2
191.678
183.888
213.975
261.473
257.502
193.95
229.056
220.083
194.283
190.081
169.605
176.886
181.465
233.358
262.444
225.277
280.4
239.929
254.61
312.039
273.984
270.189
277.24
227.595
260.628
262.16
136.647
195.359
151.549
209.436
187.672
175.433
178.029
157.827
146.179
146.519
149.193
164.053
162.234
176.869
177.035
152.327
158.339
157.042
156.535
151.873
149.33
154.241
147.424
164.987
163.659
165.801
165.49
165.595
161.935
146.981
171.518
183.126
183.29
179.712
169.535
200.185
198.488
185.815
185.183
231.798
188.891
202.324
184.08
186.172
169.592
167.442
230.951
179.899
234.552
184.696
222.056
183.502
3.20963
0.720855
220.119
234.45
219.035
240.65
250.149
233.46
202.974
236.529
326.928
335.333
332.3
345.928
330.035
327.864
317.172
294.516
204.779
366.865
281.642
260.343
235.625
253.327
240.77
305.337
239.894
236.967
230.708
265.683
270.184
263.83
311.825
311.644
319.044
319.233
319.475
304.54
301.356
224.548
288.49
294.793
308.375
307.234
321.483
287.792
235.544
270.72
234.271
179.416
209.584
181.227
199.187
214.2
196.108
133.528
297.095
314.963
324.111
311.326
277.469
331.762
188.93
188.535
192.454
240.32
239.384
260.217
303.111
301.789
305.187
324.918
326.878
286.592
240.482
192.627
197.656
196.552
216.747
269.265
243.483
321.557
323.352
298.365
300.594
288.995
315.64
319.554
281.559
302.445
281.592
294.18
304.582
309.698
316.99
308.979
309.648
235.441
30.5118
326.241
361.146
353.355
348.451
333.053
314.681
323.335
330.305
357.639
335.67
334.488
325.09
363.577
334.372
324.833
323.978
324.56
334.02
278.874
268.874
247.938
274.594
240.303
233.797
273.015
311.01
235.404
270.315
322.381
301.65
312.067
309.304
301.798
278.859
277.713
289.168
269.992
264.786
276.438
233.481
235.199
236.439
192.01
196.523
209.288
312.733
308.947
294.024
291.409
309.747
266.623
273.946
251.987
188.154
237.369
207.971
191.152
210.991
262.384
324.954
297.207
302.762
318.441
314.271
322.226
318.057
322.491
319.484
263.564
255.384
276.626
262.125
289.865
313.635
317.977
314.808
304.727
314.12
302.683
302.981
314.099
319.482
368.137
304.82
312.488
302.387
313.233
325.385
313.09
265.846
302.696
268.754
229.064
273.533
262.005
236.442
243.503
343.362
341.442
350.863
349.637
327.607
317.719
316.419
288.493
253.325
265.299
264.244
255.418
259.828
272.4
206.01
228.513
203.768
229.749
204.507
181.782
191.388
237.674
214.241
313.824
312.853
202.481
231.145
217.397
338.149
340.166
345.208
341.602
341.35
354.429
310.636
325.336
325.141
317.854
311.878
316.789
143.058
248.899
218.31
242.327
294.567
281.18
289.275
284.734
301.159
300.403
299.542
296.123
248.237
249.922
249.887
324.665
232.157
265.173
256.278
256.362
262.07
332.326
296.456
330.636
245.26
260.724
299.909
201.742
257.158
226.191
305.838
293.446
264.025
250.813
229.106
235.134
246.332
253.758
196.871
205.683
217.667
212.961
197.97
189.237
198.694
182.763
210.345
221.835
281.988
302.24
272.538
268.326
236.158
189.613
207.086
212.384
246.229
230.417
244.783
209.448
222.58
213.391
192.126
184.122
181.96
169.305
194.996
133.17
134.253
188.546
256.301
270.087
258.481
243.701
275.665
273.679
280.454
302.01
252.656
211.668
209.29
205.154
302.6
286.348
256.665
276.738
251.874
269.592
220.126
235.097
221.005
323.804
296.342
312.597
305.764
189.812
198.654
215.463
281.389
236.283
231.745
195.71
214.43
189.631
187.726
190.688
187.834
188.271
193.057
204.025
187.221
195.51
198.97
225.39
262.559
190.755
195.544
261.138
269.608
216.53
211.028
228.332
249.436
195.702
200.755
193.057
108.545
238.766
295.328
270.562
255.179
285.324
285.167
273.417
267.538
251.405
260.686
243.83
245.748
252.145
226.077
281.303
257.807
241.67
253.076
213.204
211.926
218.631
247.976
231.363
262.197
246.065
231.181
196.825
207.23
314.715
307.344
272.884
276.452
255.007
241.051
222.355
232.679
208.281
208.714
210.335
219.631
211.834
209.143
238.923
241.01
257.212
240.591
257.373
255.491
255.456
253.98
199.352
194.206
240.19
203.563
278.194
281.321
253.65
268.309
244.399
218.481
240.208
193.733
194.638
187.499
184.003
191.795
185.877
206.476
215.504
225.767
239.826
234.683
252.736
233.232
241.475
250.862
224.279
201.607
255.184
202.095
261.812
245.12
196.579
269.995
265.822
259.589
214.546
188.751
190.615
177.941
191.63
212.22
206.656
186.613
201.258
214.51
182.169
211.769
195.252
229.087
252.017
216.801
266.928
193.237
192.483
195.126
184.036
179.445
203.752
201.279
227.85
228.259
224.884
209.301
216.646
195.49
193.366
252.688
206.712
210.198
237.045
229.78
228.562
252.552
251.286
207.286
204.57
251.99
224.5
239.174
262.504
256.169
249.595
207.707
208.46
254.412
248.421
224.391
225.482
212.117
236.097
212.563
197.707
114.277
102.438
199.759
201.394
197.85
180.827
192.581
186.606
186.496
181.414
158.567
190.335
126.325
121.376
140.361
119.407
96.2939
212.639
189.985
182.647
190.451
182.077
188.707
188.986
209.6
204.055
191.48
219.726
223.119
226.977
242.8
232.922
246.565
232.853
246.59
251.739
241.775
231.073
226.797
299.971
270.314
315.439
304.728
204.729
152.769
201.553
210.097
227.029
223.521
194.944
197.582
188.476
191.657
187.316
182.371
187.255
195.873
187.168
186.481
183.8
245.386
228.924
227.468
233.603
225.997
215.684
216.274
233.519
230.531
236.568
257.626
240.144
267.746
273.359
264.463
278.417
237.98
207.38
288.673
294.682
311.535
305.813
312.436
205.384
188.23
184.022
184.144
186.106
185.902
166.371
208.631
205.574
203.103
201.757
186.319
204.092
205.319
198.403
194.213
195.72
191.146
159.843
200.931
189.318
192.345
203.643
203.664
248.282
204.894
260.509
214.086
221.788
68.5284
195.143
142.193
58.7374
139.355
262.1
244.24
219.67
258.39
183.813
186.236
171.335
211.272
150.484
166.056
239.911
223.038
244.777
246.865
262.93
162.128
166.405
238.058
249.502
254.65
241.915
258.325
247.659
232.881
257.352
257.232
198.79
204.191
229.082
188.486
217.743
332.085
320.819
355.331
220.12
225.566
235.99
237.02
288.862
271.703
254.52
262.159
286.169
222.003
223.272
251.165
262.735
253.197
209.424
210.265
208.131
212.305
212.862
212.246
215.925
217.132
222.659
225.742
198.483
198.073
199.036
211.634
214.441
211.21
211.747
204.181
216.698
209.944
233.866
242.237
232.367
206.935
364.927
355.961
313.904
298.039
338.016
346.29
324.346
351.544
282.57
274.311
260.999
258.27
262.941
260.019
258.766
271.968
264.605
283.333
272.981
246.358
246.21
246.997
264.67
258.01
262.64
264.522
279.545
272.712
279.716
281.123
264.957
290.094
267.535
293.55
284.669
284.051
288.735
290.389
269.555
259.327
244.241
270.349
252.092
272.785
207.836
257.047
260.758
228.986
266.754
268.072
267.248
199.542
204.176
166.224
128.092
133.797
134.315
132.78
291.806
177.557
159.907
154.763
121.023
151.977
133.957
78.1999
295.899
295.11
296.305
283.047
285.183
279.622
264.903
308.661
309.031
309.496
323.95
278.698
282.24
280.949
282.735
280.3
271.112
276.495
267.414
267.227
253.976
253.872
251.728
268.282
253.425
247.586
265.988
272.81
263.058
258.554
216.678
221.711
199.587
183.5
179.191
16.2713
229.113
250.234
182.451
177.115
172.033
158.301
145.808
170.159
156.691
295.003
141.885
328.773
148.667
166.797
204.328
167.97
171.991
147.316
142.918
139.152
137.625
130.959
131.454
128.84
131.901
131.814
141.594
134.682
137.823
152.12
129.883
154.631
143.562
157.528
139.378
148.991
130.856
51.5055
135.362
103.306
137.065
137.957
138.529
139.271
137.94
142.006
139.186
144.578
118.384
140.334
144.367
140.712
141.322
142.293
133.985
135.855
132.335
91.254
80.1861
73.0961
83.6973
223.804
188.156
153.058
166.351
163.811
159.921
141.838
222.065
216.339
207.022
210.61
173.693
136.536
139.207
134.033
132.373
130.607
16.3168
110.835
136.762
128.922
113.377
149.34
137.312
130.837
112.987
142.042
137.934
140.937
139.897
137.853
119.757
139.443
137.455
136.638
134.325
132.71
136.904
138.649
134.504
136.368
128.018
143.538
107.347
70.0813
71.8919
84.6157
86.9946
68.8444
74.933
80.8395
83.572
94.789
100.943
79.0439
67.7852
68.6926
82.8298
98.7803
102.661
121.13
82.6644
83.4481
77.5887
77.3804
72.3868
73.2515
22.246
44.0322
67.4939
74.8229
78.9241
85.1238
82.8965
83.2536
83.6228
72.4656
80.4179
79.8654
79.416
73.0546
70.4784
75.0651
79.5143
74.6197
73.3167
79.6601
73.7351
83.5121
88.4712
87.1218
80.6624
74.1262
77.7899
78.6393
79.5283
76.38
81.2384
81.2965
82.2067
84.3711
78.9738
79.228
76.2134
85.323
77.9886
74.3989
82.744
77.1772
75.5556
75.2539
73.0173
72.6253
70.2322
75.6685
75.8682
75.9026
81.6669
83.4463
85.6086
78.0033
81.4549
80.1287
77.6161
72.9714
70.8084
84.8074
72.7578
72.4409
70.4513
67.2935
80.7906
83.9724
80.0986
66.5636
70.9546
83.6466
83.6649
87.5072
86.4425
89.6223
85.9614
85.1057
88.7953
72.7583
79.8228
90.6383
56.8302
86.6297
82.8345
73.8484
105.528
102.083
59.5193
0
77.2916
75.6484
69.4579
75.123
74.2366
73.9655
70.9937
72.7685
86.802
73.7738
74.6217
95.9275
76.5304
84.5386
93.3217
92.3395
91.0537
66.6149
64.1762
89.7514
96.3233
67.6916
89.984
97.9627
73.3686
71.9735
88.9557
89.368
86.3416
66.7677
66.6154
69.4369
86.0872
86.2362
66.1698
60.1464
61.7973
60.9055
85.4355
75.4084
62.3454
76.5337
88.6496
86.6661
86.3565
82.3126
79.4273
80.418
76.9279
71.6349
77.7309
81.4607
80.4385
70.4977
98.4117
79.6111
91.9936
94.1081
95.6173
93.1546
113.919
6.01377
129.654
82.8552
87.9976
87.0741
88.4308
90.152
94.9975
84.5334
85.5324
83.7054
89.1313
87.6726
87.2567
88.5614
82.9949
77.8864
81.484
78.9519
87.9911
81.0825
88.6925
82.5615
87.8047
80.7461
74.191
79.8493
83.0631
80.5274
62.1747
61.5541
76.278
78.2439
85.157
76.193
70.2328
66.1004
85.6557
67.3856
77.8217
68.6496
55.935
52.6538
68.0741
71.3133
63.8525
61.5334
63.9953
69.8428
58.888
57.9608
62.4905
70.0112
74.7031
69.6922
61.4875
63.6505
76.901
81.6408
61.9315
71.537
72.3534
76.6621
80.2886
73.1288
71.6327
60.7531
79.5101
90.1362
90.2421
78.7171
92.702
72.8601
113.907
109.304
92.0581
90.1812
148.631
200.07
83.1755
74.1949
88.4726
94.3003
100.295
86.4407
86.4843
80.5425
79.0029
63.3585
75.7148
86.1096
74.3004
101.409
68.2752
96.1056
82.9322
99.9721
84.0083
93.2359
69.6812
72.3662
69.9233
71.6404
67.8147
71.7719
94.6239
75.2152
92.0305
92.7445
85.6414
90.0757
90.9372
92.0563
92.4508
78.3834
75.669
73.1121
93.2198
90.132
85.8551
86.7476
92.1495
87.4276
113.625
108.63
89.4869
90.0393
87.4637
98.1081
104.553
116.463
100.788
103.054
95.7617
92.92
100.455
103.724
110.888
102.837
102.949
163.45
169.971
156.031
142.379
104.856
96.7656
218.538
195.084
191.679
232.051
263.005
166.988
152.892
136.921
154.368
91.1174
99.8078
101.83
101.654
88.5015
85.8674
94.7461
117.573
116.066
111.851
128.365
103.673
122.376
121.847
139.356
135.81
146.834
116.708
103.625
119.226
122.418
114.111
125.757
124.498
148.34
128.924
136.793
157.088
183.618
134.976
131.48
124.507
174.478
174.816
160.936
190.953
186.605
166.449
216.752
214.098
175.702
262.557
231.144
222.829
130.744
142.444
153.151
192.726
182.762
218.59
250.721
250.498
278.205
178.33
195.313
184.226
193.065
205.024
175.203
206.581
212.519
195.817
199.804
217.652
204.084
175.293
228.018
197.981
177.047
254.885
230.413
159.98
217.254
169.672
283.717
153.933
167.986
181.919
164.334
183.834
177.176
171.283
178.155
177.927
178.115
169.489
177.66
185.03
206.838
182.193
194.056
208.091
197.658
216.616
222.289
235.177
239.926
224.462
245.105
235.546
242.492
242.147
273.394
265.116
271.567
279.415
245.759
236.083
229.903
120.443
185.796
184.108
170.715
197.912
124.606
229.007
227.739
211.473
207.152
186.954
196.592
191.871
178.759
180.634
200.458
217.873
217.784
223.207
216.891
228.432
219.533
225.067
227.527
190.84
166.009
224.693
227.076
254.069
230.836
242.445
233.744
227.733
250.887
242.499
213.307
236.613
264.887
259.281
223.081
245.771
253.819
236.811
241.361
221.411
233.558
158.155
296.511
243.509
289.521
266.091
273.627
276.283
268.591
281.884
281.307
288.664
285.728
267.928
291.157
251.249
274.094
271.027
252.027
276.192
276.383
263.944
259.215
264.808
247.706
251.619
238.698
193.1
214.135
200.354
158.671
276.839
291.165
282.2
303.856
295.376
255.174
232.171
158.753
174.436
290.925
263.688
272.304
260.228
296.332
144.849
150.955
132.384
136.052
193.479
176.173
169.96
166.379
185.944
173.001
163.693
146.284
154.205
172.941
193.703
191.892
187.044
182.795
129.23
169.968
193.893
188.665
164.322
149.226
192.113
181.932
89.5261
95.221
100.201