# vtk DataFile Version 3.0
File created by libpointmatcher
ASCII
DATASET POLYDATA
POINTS 2963 float
   5.83615   -2.47426    6.07259
   6.11218   -2.18534    6.17548
   6.28845   -2.11665    6.23095
   4.94359   -2.55159    5.90011
   5.16996   -2.27227     5.9269
   5.45606    -2.3485    5.98327
   5.40573   -2.25311    5.98393
   5.35788   -2.14647     5.9915
   5.84901   -2.01249    6.13445
   5.90333   -1.98345    6.15033
   6.05418   -1.87173    6.20808
   5.20472   -1.70299    5.86943
   5.45872   -1.18402    5.85118
   6.36924   -2.11018    6.25454
   6.48258   -2.20057    6.27228
   6.55473   -2.14788    6.29974
   6.46352   -2.23543    6.26822
   5.96675   -2.14048    6.14514
   6.19562   -2.13863    6.20044
   6.24897   -1.97326    6.23805
   5.80467   -2.12897    6.12928
   5.92404   -1.67239    6.20495
   6.23381   -1.58186    6.29619
    6.2215      -1.61    6.29083
     6.441   -1.57481    6.34905
   6.46963   -1.86712    6.31676
   6.79801   -1.39755    6.46379
   6.90746   -1.72444    6.44526
    7.0392   -1.89882    6.46369
   6.82488   -1.70864    6.41656
   6.83334   -1.63417    6.43184
   6.83666   -1.73174    6.43375
    6.8031   -1.43132    6.45855
   6.85673   -1.36235    6.48377
   5.57914  -0.204195     6.3794
   7.13808   -1.75604    6.54317
   7.55368   -1.35718    6.33483
   5.42838   -2.34539    5.98718
   5.49501   -2.25148    6.04018
   5.80345   -2.13659     6.1047
   5.86736   -2.01002    6.14799
   5.55391   -2.10048     6.0454
   5.88772   -1.85467    6.17556
   7.24997   -3.00409    5.84751
   6.44156   -2.17007    6.27572
   7.00007   -2.01896    6.41001
   6.09547   -2.09366    6.19037
   6.41919    -2.0011    6.29253
   6.74296   -1.69551    6.41501
   6.26591   -1.53031    6.31732
   6.47778   -1.46164    6.38324
   4.91722   -3.25018    5.89889
   4.83313   -3.33645    5.90272
   4.83101   -3.75855    5.89758
   4.77745   -3.71931    5.89991
   4.94813   -2.92471    5.91671
   5.58924   -3.82125    5.89332
   5.44492   -3.56772    5.89065
   5.71506   -3.72636    5.88898
   5.99723    -3.5576    5.97914
   6.14698   -3.88407    5.98956
   5.75232   -2.51069    6.04974
   5.73518   -1.92625     6.1258
   6.61853   -1.38359     6.4282
   2.90758   -4.41023    5.92599
   3.26488   -4.87322    5.93381
   2.71896   -5.08636    6.06807
    3.5629   -6.31684    6.26302
   4.04995   -5.18021    5.92722
   4.23665   -4.83152    5.92934
   3.08654   -4.45742    5.94258
   3.96882   -4.57417    5.94995
   4.40045   -5.18549     5.9338
   3.78858   -5.59382    5.93775
    4.4144   -2.86661    5.90847
   4.22511   -2.69537    5.91519
   4.07617   -2.33097    5.89988
   3.57829   -2.32645    5.89949
   3.41774   -2.71121    5.90525
   3.89276   -2.65782    5.91103
   2.55813   -1.79676    5.88087
   2.69779    -2.2491    5.89425
   6.04999   -2.09564    6.19052
   5.29257   -2.07886    6.00356
   4.33796   -2.27251    5.89766
   4.50283   -1.88554    5.88736
    4.4807   -1.92871    5.88817
   4.33735   -2.42928    5.90634
   3.77977   -1.94369     5.8909
   3.97722   -2.14739    5.89519
   3.26716   -1.52856    5.86438
   4.15467   -2.73845    5.91026
   3.68824   -2.92415    5.91176
   3.62788   -2.93957     5.9125
   3.85867   -2.43483    5.89815
    3.8217   -2.40075    5.89929
   3.92982    -2.3491    5.89899
   3.80984   -2.59788    5.90634
   3.00103   -2.20294    5.89311
   3.01806   -1.76857    5.86793
    2.9198   -1.65158     5.8712
   2.93664   -1.97415    5.88253
   3.40123   -1.16353    5.86627
   3.19267   -1.55767    5.87293
   3.38213   -2.16696    5.90854
   3.14205   -2.10401    5.90746
   3.13293   -2.05072    5.90474
   2.85036  -0.577293    5.84904
   2.37791  -0.647828    5.85687
   2.96013   -1.12675    5.86513
   2.40928   -1.49585    5.86988
   3.05712   -2.25717      5.903
   3.03583   -2.25696      5.902
   2.71348   -2.47696    5.90238
   2.76511   -2.50345    5.90232
   2.74728   -1.91698    5.88577
   2.84308   -1.96378    5.88929
   2.42324   -1.86273    5.88056
  0.617113    -1.1906    6.13946
    2.3946     -2.275    5.89159
   1.17044   -2.45847    5.92626
   3.29281   -1.16815    5.87205
   3.18297   -1.15792    5.87348
   3.10446   -1.03982    5.85739
   3.58956  -0.569048    5.84728
   3.10581  -0.593817    5.85048
   3.16562  0.0160904    5.94286
   2.94803  -0.942069    5.85205
   2.25282  -0.975626    5.86861
   2.79827  -0.696036    5.85232
   2.69799  -0.299781    5.84184
    1.9872   -1.83431    5.88671
    1.0891   -1.31045    5.86669
   1.31398   -1.36972    5.87947
    1.2832   -1.38419    5.88149
   1.52985   -1.52565    5.88606
   1.28201   -1.77234    5.89304
   1.64843   -1.87855    5.88284
   1.52277   -1.99384    5.89023
   1.32431   -1.97354    5.89242
   1.68781   -1.84371    5.89757
   0.86955    -1.4094    5.87891
  0.552588   -1.61144    5.94861
  0.829592   -1.82023    5.89003
  0.671603   -1.91234     5.8887
  0.752059   -2.22167    5.89399
  0.555401    -1.8964    5.89013
  0.636375   -2.36859    5.89561
    1.8826   -2.07243    5.89031
   1.78949    -2.2986     5.9022
   2.00139   -3.18416    5.91969
   1.06548   -2.31303    5.89128
  0.946537   -2.39198    5.89231
   0.83815   -2.43836    5.89402
 -0.048536    -2.8307    5.99346
   1.45314   -2.50377    5.90138
  0.986017   -2.66175    5.90056
    1.5354   -2.86713    5.91275
   1.62584   -4.16046     5.9312
  0.716939    -2.6056    5.90614
   1.12953   -2.77612    5.90851
   1.15688   -2.85711    5.91583
   1.31245   -3.01852    5.91736
   1.46108   -3.20397    5.90961
   1.95477   -3.40551     5.9185
   1.56293   -3.28215    5.92093
   1.73374   -3.30956    5.92296
   2.11554   -3.41444    5.91989
   2.31972   -3.75055    5.92783
 0.0616019   -3.06514    5.89626
  0.526341   -3.07402    5.90666
  0.756499   -3.17854    5.90881
  0.986666   -3.14711    5.90636
   1.00473   -3.19032    5.90999
   1.37181    -3.2682    5.91065
   1.53113   -3.64407    5.91638
    1.2796   -3.95327    5.92251
   1.06745   -3.52964     5.9207
   1.29867   -3.32229    5.91924
   1.53084   -4.25628    5.93183
   1.97725   -4.77726    6.07057
  0.378351   -4.18633    5.92694
  0.352952   -4.24571    5.92845
  0.205617    -2.2863    6.03412
-0.0524679   -2.59894    5.97289
  0.250517   -3.07939    5.90707
  0.553678   -3.26526     5.9129
  0.613539   -3.33654    5.91118
  0.643688   -3.42553    5.91229
  0.899965   -3.36945    5.91328
  0.859381   -3.48872     5.9132
  0.870237   -3.62555    5.91675
   1.07428   -3.47586    5.92894
   1.11517   -3.40432    5.93353
   1.28972   -3.35486    5.92913
   1.18894   -3.66532    5.92327
   1.07604   -3.47824    5.92413
   1.45917   -3.99582    5.92723
   2.04457    -4.3382    5.98506
   2.38144   -4.43762    5.94289
  0.760653    -3.7401    5.92053
  0.623371   -3.76975    5.91964
  0.300037   -3.77006    5.90732
  0.754113   -4.03518    5.92469
  0.951167   -3.99743    5.92211
  0.746494   -4.23061    5.92199
   1.02541   -4.08069    5.92693
   1.24493    -4.1263    5.92532
   1.34088   -4.21347    5.92949
  0.925299   -4.28895    5.92751
   1.34934     -4.538    6.00182
  0.481909   -4.45298    5.92669
  0.385626   -4.54562    5.92754
   1.02673   -3.80376    5.93079
   1.03972    -4.0842    5.92509
   1.11604   -4.15331    5.92046
   1.05965   -4.11939    5.92179
  0.951298   -4.31247    5.92678
   1.04221   -4.27417    5.92689
   3.73719   -5.18618    6.25065
  0.352231   -4.29525    5.92848
  0.390947   -4.25114    5.92725
   0.24353   -4.54836    5.93197
    0.7307   -4.36506     5.9252
  0.875885   -4.38935    5.92704
  0.908929   -4.39249    5.92698
   1.15269   -4.56764    5.93614
  -0.20275   -6.35383    5.91466
  0.130105   -4.44171    5.92657
  0.670723   -4.15917    5.92234
  0.743313    -4.2084     5.9254
  0.549392   -4.56046    5.92438
  0.555248   -4.48517     5.9365
   0.78133   -4.47768    5.93776
  0.755853   -4.63853    5.92584
  0.706159    -4.5226    5.93543
   1.00577   -4.77263    5.93806
  0.918199   -4.78709    5.93298
  0.296825   -4.70988    5.92994
  0.222975   -4.71272    5.93382
  0.368644   -4.77241    5.93635
  0.382859   -4.69195    5.93621
 0.0369541    -5.3562    5.90784
  0.121277   -5.23135    5.91331
  0.710924   -5.01108    5.93347
  0.261406   -5.28355    5.90712
  0.203526   -5.34045    5.90342
  0.236873    -5.4169    5.90559
  0.350806   -5.39435    5.91039
   0.23541   -5.45053    5.90672
  0.322543   -5.47752    5.90653
  0.278611   -5.40289    5.90648
 0.0948849   -6.44832    5.92582
  0.633287   -5.27489    5.93825
  0.330018   -5.49128    5.91596
  0.271042   -6.57779    5.93096
  0.639531   -4.42083    5.92774
  0.467236   -4.74001    5.92323
  0.670978   -4.86317    5.92422
  0.656102   -5.01219    5.92945
  0.857246   -5.09483    5.93626
  -0.40748    -5.4199    5.93306
 0.0203748   -5.14218    5.90483
-0.0766147   -5.37495    5.90938
  0.468727   -5.27862    5.93233
  0.408982    -5.5647    5.91586
  0.374918   -5.58904    5.91809
  0.214815    -5.9572    5.92303
    0.6086   -5.37743    5.94202
  0.256261   -6.53252     5.9294
  0.279519   -4.86973    5.92805
 0.0870782   -4.99236    5.92544
  0.515007    -5.2448    5.92917
  0.673225   -5.23982    5.94551
  -1.02287    -5.5326    5.90516
  -1.08536   -5.64029    5.90565
 -0.716139   -6.19495    5.91515
 -0.204319   -5.29827    5.93203
  0.196547   -5.27288    5.93637
  0.474815   -5.58926    5.93381
  0.216173   -5.58263    5.91373
  0.134282   -6.40566    5.92761
   0.74086   -6.06486    5.92891
  0.582692   -6.95419    5.94652
  -0.86249   -5.71443    5.90027
 -0.444944   -5.62963    5.93111
 -0.530496   -5.73018    5.93094
  -0.15388   -5.31242    5.93213
-0.0891012   -5.34473    5.93553
  0.292531   -5.46803    5.92221
  0.364387   -5.16689    5.95221
  0.276829   -5.34631    5.94582
  0.104067   -6.07824    5.92066
-0.0103607   -6.03489    5.93286
  0.328911   -5.74486    5.93151
  0.298878   -5.75758    5.93216
  0.282312   -6.69297    5.92699
  0.704159    -5.8512    5.94108
  0.730579   -6.09936    5.93903
  0.904148   -5.93843    5.94612
[...]
POINT_DATA 2963
SCALARS stick float
LOOKUP_TABLE default
4.17176
6.36629
4.77562
1.14039
1.54731
4.48504
4.56057
3.89171
6.03006
6.81847
7.73991
0.903299
0.210697
5.48966
5.13018
4.47375
5.294
5.94704
4.70637
7.71601
4.02708
4.82498
4.32188
4.44221
4.96754
5.67155
3.82083
3.81
3.02451
5.0877
4.92323
4.90603
3.7846
2.52075
4.44651e-05
1.83906
0.0873706
4.20331
3.50512
4.04501
6.14944
3.32496
6.96159
0.00184298
4.87433
3.06585
5.35217
6.93481
5.3311
4.27687
4.07071
0.792784
0.734818
0.736088
0.816457
0.808007
0.923567
0.457151
0.632425
0.678511
0.248263
4.1021
5.71956
4.21022
0.267233
0.31861
0.262958
0.000780582
0.523515
0.553417
0.355645
0.262333
0.436368
0.163483
0.892999
2.89802
3.39481
2.15733
2.41012
4.09496
2.52295
3.73928
5.18213
2.94053
2.41557
0.609984
0.67525
3.37631
2.07402
3.19102
2.24875
2.84611
1.6983
1.58242
4.65664
4.38056
3.7073
3.89165
4.7178
3.2479
3.32274
4.48691
1.78987
2.1222
1.87276
4.99391
4.77843
1.84567
0.874119
3.1072
1.57977
4.53571
4.82926
2.67053
2.61068
3.4429
4.17041
2.16335
0.416962
1.8753
4.14411
2.38431
2.45898
2.06163
0.442016
2.16361
0.188889
1.51309
0.69821
2.02058
0.767642
1.43501
1.25142
1.87776
1.86575
1.81651
3.10431
2.70662
2.93403
3.23195
2.66523
1.46921
1.35348
2.74752
2.72553
2.59357
2.32405
3.15212
2.52822
2.06218
2.01387
3.95749
4.20603
4.09046
0.702052
2.93721
3.31443
3.32658
2.5983
3.60126
3.14015
3.47307
4.86773
4.856
1.57554
3.2726
1.88985
0.967376
0.449461
1.00097
3.08186
5.79388
6.33782
6.76471
4.5759
5.43452
7.58483
6.96306
5.01046
3.31639
0.650379
7.61046
8.24306
0.946454
0.712933
1.06937
3.45126
4.49617
5.57295
7.96784
8.48132
7.22085
6.51239
6.66181
5.15411
6.674
6.50053
5.44736
0.763064
0.424055
7.28346
7.03946
3.67791
9.78715
9.96083
11.1691
10.507
6.97364
5.38803
9.12996
4.28432
11.2017
9.18036
6.31575
10.3271
9.49062
10.2443
8.75026
8.40027
0.187363
8.51363
9.17763
8.93691
9.90194
9.09242
9.35517
7.28971
7.74051
6.12545
11.3293
11.2388
10.0238
10.3157
9.70047
9.83056
10.5544
7.62596
8.13669
8.93588
8.43216
8.6146
8.99982
13.6849
13.8057
8.60766
14.718
16.1838
17.6779
17.6016
18.5452
16.7009
16.2672
7.54984
10.4847
17.0845
5.71967
9.8146
10.2926
8.24095
8.83407
7.69707
9.41076
11.2914
11.8304
12.6036
17.9343
18.0276
15.0765
14.563
6.31195
6.84866
7.99423
11.5135
8.99262
9.6085
8.92188
5.68632
9.33747
14.9128
16.5243
18.1451
8.37037
13.0711
2.70037
7.4286
9.09312
9.5936
10.0805
11.2083
17.5959
10.8518
14.5182
12.7705
12.6169
19.2501
19.5084
4.84123
11.3931
12.7489
11.1431
3.2455
6.09779
13.1387
13.4089
11.9032
5.7868
8.73011
13.2534
13.7371
17.7242
17.9646
9.30597
20.1092
18.0057
14.861
18.7081
9.21456
12.8186
16.863
11.7197
11.947
8.55057
7.24626
3.84667
4.27898
11.5048
10.317
9.8878
10.686
10.4045
10.3503
6.00181
4.58487
0.195895
5.06995
6.91435
1.59259
0.472287
19.1629
15.9034
8.66546
8.38762
7.04906
8.0227
11.6439
9.59832
12.2016
13.0592
13.0226
12.0244
14.8115
12.0445
7.25671
9.43826
8.33486
2.86615
6.488
1.15514
3.32912
8.63379
9.20017
1.68401
0.42189
9.66678
11.7042
7.2603
16.9423
15.7118
10.1999
13.9761
13.3511
12.9956
14.2442
15.3901
10.0412
4.67314
8.71425
9.175
9.47146
9.06923
9.76785
9.54987
8.62725
9.31347
10.0581
7.36768
4.97683
5.02607
4.58979
4.36597
3.19186
0.735595
7.55032
6.18564
3.81205
7.71515
10.08
8.72231
3.40065
2.89679e-05
2.64583
2.97292
3.63447
3.56545
3.26407
0.17155
3.14284
0.946418
1.30695
2.02686
1.18655
0.938416
2.93368
4.14665
1.80185
1.78482
0.629521
3.97273
0.221076
0.898174
2.3712
0.846952
3.2533
3.23495
1.75919
2.97676
3.13094
3.03432
2.27706
2.04583
2.10019
2.44405
6.45983
4.48896
5.28072
2.52287
2.65119
1.71946
2.44955
4.34416
2.36586
4.31338
5.0237
0.881866
5.39478
3.93638
2.15664
5.35088
4.40205
5.358
4.69139
5.12786
2.68946
6.02918
4.28757
5.82553
3.35451
2.91796
4.28649
5.1258
5.28086
5.24512
2.31304
0.000375271
1.86415
2.84911
2.13363
2.4181
2.10164
3.27636
3.27023
2.96242
2.57418
2.72385
2.38673
2.45095
2.72393
1.78866
1.69142
3.25482
2.51476
2.46826
2.11264
3.27767
2.14283
0.741492
1.98021
1.97673
2.3142
7.65853
2.50639
2.59356
3.40419
4.40658
4.65346
4.02036
3.9695
3.67321
3.8005
2.55196
3.65221
3.82277
3.70144
3.9109
4.12856
3.76606
4.17218
3.55191
2.79994
4.37009
4.23657
5.32364
4.04674
4.37734
7.83369
5.32017
2.80225
2.30213
3.00842
3.53456
3.74213
1.07278
1.60943
3.19278
2.62626
3.0265
2.21834
1.79365
1.44781
1.93696
1.56199
3.34735
3.59945
3.9984
3.20514
1.99346
4.25593
4.34198
4.32833
3.78997
4.87499
2.68923
2.13475
0.510223
0.686091
3.11774
3.71002
2.68355
1.89675
1.8696
1.68067
2.26308
0.837588
1.40731
2.48049
2.98016
5.28627
6.56078
2.13314
0.830834
0.0765697
0.971706
2.56069
1.55473
3.35817
3.78514
4.41343
3.48577
4.64107
6.2825
4.49348
6.31593
6.70046
1.23597
2.9467
2.89038
2.36827
3.83675
2.00199
4.22694
5.48904
4.37798
3.09317
3.96598
1.87251
2.62934
2.05092
2.65543
2.91505
2.07541
2.43838
1.69849
2.50827
0.904817
1.12508
1.53411
1.38521
3.38595
2.13429
2.21064
3.7304
4.15004
3.91263
2.21538
2.39705
5.3815
3.73867
2.15027
5.85585
3.67073
4.73975
4.81711
5.0295
5.77974
5.9055
5.99671
4.62358
3.27974
4.24934
2.38478
4.56883
3.85274
4.14579
3.5193
3.2461
2.7876
6.05091
4.28582
4.34598
4.23167
3.26002
3.83172
3.72281
3.28505
4.31374
4.83252
3.70512
0.243486
3.83728
3.10109
3.5497
4.73807
4.22951
4.06987
2.91897
3.21793
3.83432
3.88711
3.37871
5.19016
5.47128
6.13773
4.98642
4.44533
4.85643
4.0721
3.81041
3.96813
3.32223
4.60768
5.58735
7.70491
0.00450599
6.91286
2.94996
3.33268
1.50253
1.16352
1.40834
3.46139
3.3208
1.67914
4.11269
4.1778
2.35402
9.48187
9.91377
10.0212
2.27293
8.96561
4.49344
5.92388
10.1194
9.14663
2.80676
0.528522
6.06767
7.04506
3.98629
8.45322
5.64106
7.28333
8.6146
6.79235
7.25715
7.59389
6.55875
1.97008
2.4759
2.09695
0.0353974
0.300673
0.519572
0.298667
5.75276
5.50588
5.85333
3.8198
3.76906
2.23733
2.83284
2.56184
1.53968
1.72257
2.52948
2.38067
3.40277
1.84395
0.536268
3.69415
3.41848
0.470845
0.0200212
2.97661
3.67886
0.826734
0.656331
4.17214
9.5028
6.92911
0.145884
4.43014
0.244889
2.77076
0
0.939849
7.46306
3.19335
1.11551
10.3754
10.0119
10.2312
2.98205
3.11743
9.55402
3.48766
1.86931
6.44895
6.58665
10.8955
9.17167
0.000217557
6.26872
3.99723
7.06439
2.00089
3.65291
9.33151
9.35198
9.54771
7.99022
8.82394
5.97918
5.9995
6.00443
5.24298
3.37337
4.8867
8.2177
7.58394
4.75367
6.53744
10.2453
5.80639
6.16855
5.44237
4.27886
1.95821
4.87099
5.06313
2.26531
2.63419
2.25007
2.40735
2.1513
0.741677
4.39944
1.27626
1.58001
5.90356
5.07161
4.94875
4.77269
0.438259
0.128975
0.435139
1.46908
4.7625
5.53329
8.45922
1.05805
2.67279
0.29553
6.97876
8.85782
6.44986
3.87354
6.82836
6.90227
6.22315
3.99436
4.02854
7.24286
4.81236
4.24481
4.55409
6.29113
5.39611
5.34302
0.0142733
0.326024
2.39473
8.7304
5.79692
6.71067
3.26528
5.7865
3.57465
6.04449
4.98575
5.20797
8.16004
8.67462
7.03736
8.15582
5.13305
1.97036
1.28293
0.679386
8.84366
8.57324
7.68371
7.67093
6.67021
6.34438
7.12642
6.21572
4.22856
0.0162849
6.46528
6.3329
0.371353
7.75231
9.26835
7.63632
2.95979
3.67671
1.16523
0.223084
1.43676
2.23457
8.95893
7.35864
7.77931
6.75618
5.60259
5.71403
7.44302
8.72015
4.10069
8.53411
6.26268
7.87726
5.37122
5.03077
8.67376
8.26383
7.53885
2.54798
1.36641
4.49815
0.789216
4.32351
2.44441
6.26171
6.49906
3.5299
3.27787
3.73482
2.71503
0
5.83728
5.55234
5.40354
5.99052
3.98296
6.88302
5.72261
1.46446
0.4269
3.93491
4.76218
0.0516074
4.69066
4.37565
7.38481
6.05838
6.06036
2.3625
6.71528
6.40812
6.86111
6.05163
7.09202
5.48202
4.68886
3.91032
5.32853
4.18465
6.85213
5.07886
6.03806
5.55721
3.6131
3.64472
5.44262
2.68039
3.98672
2.85933
3.27841
2.40025
0.392726
3.59078
1.88219
7.31304
7.80068
7.28787
8.29704
2.5391
2.91193
3.53379
4.38376
2.77206
2.28185
6.88228
3.1308
2.94083
3.93535
0.069679
4.61279
6.24256
4.59864
5.23991
7.46489
7.14382
2.55605
5.50572
8.19702
7.00661
1.3289
0.175056
2.26201
1.63466
3.20812
0
2.55348
6.05545
7.68844
7.29367
3.10334
4.17141
3.85844
2.77114
0.306154
0.252144
0.0055486
6.09738
5.08021
0.287589
1.19209e-07
0.49088
2.65811
3.11108
2.68413
0.268049
2.15084
0
3.95775e-05
1.19209e-07
4.40589
2.35272
5.49454
4.21189
6.72504
7.3701
2.17666
2.75542
0.282037
4.5738
5.92782
5.2617
1.20914
3.85419
6.05186
7.24144
5.72494
1.80709
3.69012
3.38338
4.24472
8.44095
6.66618
6.46827
4.98283
3.20351
1.34806
3.0182
3.25857
0.912716
4.48614
7.78195
7.89598
1.97274
0.953866
5.93741
3.48813
7.76206
4.47666
7.43961
8.01825
6.68257
5.66296
0.839443
5.1517
1.33092
1.45134
7.80766
8.03101
9.72944
1.9875
10.3608
16.0273
13.1792
12.5099
1.20451
3.79306
8.45964
7.29707
14.0757
12.9021
15.9276
13.4735
10.6218
10.942
12.0191
4.15755
10.4518
15.1453
13.349
14.3196
3.86354
9.62883
8.81825
14.1775
12.5146
4.29462
16.3042
14.1726
7.38891
7.67381
9.70259
10.7342
9.93162
2.11747
2.5623
5.28379
10.2386
8.74935
5.78339
14.2808
13.9634
13.456
5.54198
4.09436
5.6995
6.56928
9.69545
10.463
13.8065
9.44107
12.1844
10.8345
13.9436
15.567
1.29856
7.82899
6.03592
8.18499
10.9672
2.47356
2.89523
1.23661
8.81263
16.1457
16.0236
16.1394
5.66781
5.85222
9.1109
4.68516
13.9264
12.7703
14.449
12.2968
9.81916
12.6164
13.6646
12.5063
8.47261
3.11772
0.0312657
11.5382
15.7473
16.4767
9.91485
16.0422
10.0488
10.3867
7.09427
0.159512
0.482368
0.223942
6.58695
5.34118
5.45125
5.40126
13.2468
12.425
16.957
17.7182
12.8916
11.6313
7.76823
10.521
16.6642
11.9616
4.79245
9.18996
13.7398
12.5133
16.6058
6.08268
2.62511
6.27114
3.05095
8.86981
5.58107
3.61247
8.35624
12.3314
11.901
1.41386
14.3511
18.3154
9.84841
9.46817
5.48806
15.328
16.1475
3.36918
3.12277
4.5919
2.03269
6.8727
17.0092
11.2626
9.94434
3.54508
6.20988
10.7762
6.04477
4.2074
2.6031
12.0275
10.4528
9.83435
9.23074
10.5179
10.1131
15.4977
4.76106
9.6816
15.935
14.375
9.00816
16.9999
13.9011
16.6661
16.3596
5.56277
12.4839
16.6662
16.6577
9.39254
12.1466
8.72169
9.63818
2.07989
8.17733
0.0236443
0.140445
0.0783124
2.76969
3.65327
3.81398
1.93246
3.12233
4.40647
4.50938
3.93859
9.41774
5.7928
8.36167
14.5056
15.1358
11.7347
16.0138
15.1111
6.34983
17.9764
16.7468
17.2073
14.6362
5.99183
10.7194
9.06074
2.08116
2.97484
3.05664
4.17331
10.503
6.15506
12.5625
19.8219
16.4653
15.4727
13.8919
9.86463
9.58003
6.51827
4.40555
0.0935698
18.4507
17.7103
17.807
17.8297
13.2228
16.6609
16.548
15.4541
18.9241
15.0854
7.9132
8.41989
14.3775
15.7124
15.422
14.3061
16.9664
8.9667
6.01073
4.12921
5.16478
4.73481
4.60971
1.43641
1.21143
4.22801
6.12966
5.63986
11.3759
9.55448
9.45442
9.44306
10.3263
9.96338
10.3626
4.43359
2.59307
4.75833
4.70621
9.1108
8.509
8.08824
6.87997
6.67047
4.0227
2.26981
2.61059
3.78517
3.72224
4.96519
4.27822
4.07757
3.73754
3.38268
3.37303
6.99091
5.36048
5.24963
6.57034
8.87511
7.95787
8.5746
8.67034
5.94065
6.19871
3.84365
5.66324
8.32752
3.69986
3.6891
5.9142
8.73081
3.80912
4.12079
3.76546
9.56539
4.77008
8.87607
8.21233
9.2224
8.54955
8.74741
6.61301
5.43805
6.76351
7.42439
5.10186
3.36913
4.84504
3.71181
8.19876
8.22739
7.13799
4.1704
4.38165
4.5615
4.90478
4.6079
5.73084
3.46771
3.27829
2.76846
3.33281
3.6751
2.9569
3.3513
4.38629
4.09285
2.86385
3.38102
3.53325
2.67366
0
4.59327
4.77563
4.89318
4.43774
3.25169
4.52487
4.84417
2.20992
4.01913
3.76836
2.13375
3.80114
1.32702
1.06543
2.81107
2.24035
2.42141
2.34
2.2597
0.26873
0.00824499
0.910148
1.7137
0.650694
1.82454
0.830773
0.800942
0.46388
0.0343997
0.175472
0.0672851
0.00936496
0.00883937
2.73186
2.38245
5.58097
3.09868
3.1436
2.76696
2.32624
2.27901
2.32465
1.80756
3.25541
3.2205
2.78315
3.07973
4.09466
0.678958
0.317011
3.60297
1.22688
1.81599
1.89119
1.84471
0.785896
0.797915
0.116521
1.54057
0.00772798
3.9231
6.12812
5.234
6.89821
5.17985
5.0616
4.17266
5.03948
3.21904
4.87118
4.59854
3.50661
3.54435
6.36664
6.56581
3.4152
3.4435
9.38462
8.98211
6.86793
8.36234
6.99157
5.59274
4.32464
6.14894
1.43429
1.78097
3.3109
4.89166
10.7022
2.74592
2.31426
3.33849
4.90017
4.58558
4.11106
2.83747
2.81885
10.9208
10.9418
9.28979
10.0376
7.36206
5.39073
5.00472
3.9866
7.97486
0.358936
11.1665
14.1218
8.50271
15.1728
14.425
17.6216
14.7965
12.3927
5.85832
5.15281
3.96868
14.1215
16.43
14.1754
16.0437
12.551
4.98512
1.74674
4.67423
7.91683
6.09061
1.84883
5.29997
2.83665
15.0332
6.9793
8.14308
7.25528
4.601
3.43712
5.29493
3.84794
4.6134
6.33745
6.65028
6.43888
0.608762
4.00852
2.43848
2.05403
7.06832
3.86117
2.45709
4.81531
3.25896
2.71107
2.58972
4.78537
2.2634
3.49486
4.53615
3.59431
3.1952
5.35772
1.83111
1.87608
0.333588
2.94759
3.06703
3.90255
3.95357
4.92349
4.42136
4.48797
1.20631
1.97692
1.71809
1.81365
1.67704
0.268256
4.41112
3.41368
3.44853
3.53751
3.08256
1.61416
7.37189
7.33659
6.82913
0.00147438
6.52482
8.0319
8.49629
6.31701
4.8171
2.52737
8.26707
1.16558
1.85375
1.74783
3.55462
2.56194
0.417246
4.03861
5.29214
6.13859
5.2214
5.48089
2.24459
8.19411
7.87643
9.88555
5.22535
8.105
6.96682
9.15218
10.2182
1.21738
1.2084
8.21367
9.39488
7.69949
6.95971
5.06584
5.30642
8.94126
4.45853
6.82964
5.89329
7.83608
5.20443
7.70741
6.44127
4.74583
7.88142
9.05343
3.41876
8.44741
10.2782
6.61231
6.38165
4.62809
8.566
4.30794
4.09383
7.81351
5.92865
7.58357
6.50444
4.43196
5.14288
6.86299
6.60946
4.41444
3.86898
1.14392
4.92575
6.99217
7.30735
7.40784
6.52529
6.85612
6.58766
6.77808
7.66777
8.83307
0.577317
7.68947
4.50529
2.86112
1.4371
0.200543
8.62926
7.40646
7.48625
6.65324
6.57607
5.5378
7.40915
7.02965
7.029
9.50567
5.81685
5.47537
11.4046
6.90405
5.28321
7.82777
4.39234
6.70182
9.92661
0.3999
0.225615
8.1307
9.1748
10.3559
11.892
12.0384
9.26505
2.46421
6.25163
5.58148
5.98441
1.8147
1.01491
8.23991
8.4855
7.72488
7.25421
5.585
1.04821
0.523961
0.259097
13.5291
11.334
11.3208
7.57412
4.97692
1.901
8.01592
5.81008
8.45154
6.6026
7.48215
8.95686
9.63841
10.1166
9.93499
5.82508
5.26294
7.43571
7.34771
5.47048
0.948565
10.2944
10.9876
11.2223
9.73672
9.2679
9.85638
7.35318
9.71041
4.8847
0.272574
0.256493
5.02502
4.13127
5.92602
0.938154
4.48675
4.92267
3.56052
2.60524
4.12366
6.21086
5.71449
6.9975
6.99796
5.83995
2.12371
5.03045
7.31275
7.7498
6.86175
6.30246
5.35087
4.91854
4.45127
2.92321
3.89499
4.11321
1.35797
2.60185
2.49683
1.6566
5.0674
5.12402
1.76415
5.48512
0.710729
2.70924
0.311872
2.66712
1.41628
2.38033
2.9261
4.44087
4.24805
2.7395
3.84576
3.74495
3.07346
2.15429
5.18533
5.01592
4.55658
4.96429
4.80067
4.95336
2.31646
3.17781
3.85739
3.74341
2.97014
4.02549
1.19209e-07
3.05674
2.36752
2.78196
0.664953
1.19209e-07
0.000159025
0
0.000251293
2.28075
1.81656
4.82344
5.03358
4.38768
9.68891
3.38247
6.37028
1.91077
7.94785
8.37761
7.30295
1.50063
4.76759
8.36367
3.2142
7.51373
7.48973
8.63431
4.82818
5.04485
4.64248
2.62553
2.73203
6.12627
3.88426
6.45446
6.25595
6.1906
4.01444
8.05487
8.29677
3.48333
5.55602
0.977703
0.684082
5.14676
4.54499
4.73756
2.76103
6.59379
3.42402
7.4487
7.84203
7.25917
1.74321
0.414227
7.23628
7.74214
2.74828
2.8161
0.850671
6.10651
5.56398
6.2413
7.40533
5.89816
7.06937
5.49865
5.92977
4.50827
4.87382
5.42563
6.29772
6.27009
6.73708
5.00251
1.95149
3.88863
5.28542
5.20999
5.69789
5.39359
6.63684
1.73349
5.33103
0.733714
3.6303
4.2858
4.84279
4.21784
4.78453
3.28485
6.29327
6.87328
6.70002
6.48719
6.37374
4.44949
5.61008
5.11268
4.40324
4.49772
4.66382
4.22223
3.92165
2.42043
3.89863
3.31781
2.21016
1.96091
3.34945
3.45963
5.23711
2.62089
4.75822
5.73456
4.0344
5.09639
3.74248
3.69512
3.4981
4.33002
2.33889
6.36169
0.0121405
2.44113
0.914918
0.737066
5.18198
1.59312
0.568207
4.50054
5.39473
4.98578
4.9022
6.34825
4.92933
5.05959
6.7128
5.97009
5.81803
6.72652
5.80493
6.1051
5.37976
6.75501
6.97056
5.87583
6.18616
4.75526
6.09857
2.6829
3.45918
0.196825
5.46285
1.82772
0.348233
6.62932
6.31894
4.66009
4.82175
5.51829
5.54926
5.51426
4.14237
4.79635
5.4389
3.81782
2.60671
3.14238
4.28607
1.43983
0.800632
0.503527
2.05909
2.69359
2.85622
1.27286
4.25962
0
2.89047
7.49118
1.93561
0.0135914
0.391602
2.74861
0.574676
0.579125
2.42745
3.82681
3.75298
3.81737
3.05603
0.234789
1.39186
5.5062
1.84228
4.31181
6.49826
6.16271
6.37082
7.03106
5.66072
5.60763
4.11825
3.93457
4.7709
5.816
6.59108
3.17342
4.7967
2.91515
5.82791
2.35509
5.59739
5.11212
3.87067
4.95401
4.1841
4.16627
0.455346
0
7.00951e-05
0.230821
0.887446
7.05792
6.63984
1.8028
8.51461
9.18209
1.30494
3.96429
12.9834
11.4083
0.611899
2.15723
4.39781
8.71741
3.46672
9.6674
6.06953
8.65326
2.8796
3.90672
13.2988
9.40397
11.7797
14.6371
14.7802
12.5195
11.9488
8.53908
8.74907
13.5089
13.4211
7.80572
9.92482
4.45376
0.074266
2.82756
9.08789
2.62409
8.45439
9.84553
10.6067
8.03906
4.24756
4.01982
1.71102
11.9998
12.2374
11.6294
11.3189
12.8387
14.6254
11.7208
6.59519
2.13437
8.09719
7.60818
12.6354
12.2553
13.1897
14.0643
13.9194
13.8912
8.39038
7.39552
6.15864
6.30153
4.08919
8.20335
7.08908
7.07483
8.00776
8.72281
7.64694
7.93182
9.82249
9.11423
2.92984
6.97299
6.09813
6.97928
5.65891
8.5079
8.5434
6.1225
6.32123
8.87896
6.90779
7.03884
9.51272
9.1408
8.94602
9.93448
8.08607
8.0148
9.51782
8.86797
8.77205
8.01678
8.45273
6.32943
7.90938
6.5285
2.70455
1.8359
1.77733
8.06755
6.39737
6.13663
2.97292
8.52423
3.00555
7.88994
4.56229
4.79825
4.48219
3.97838
6.23444
3.67329
1.81204
10.9409
8.48946
1.14798
1.26905
2.74076
5.32643
4.52042
5.24745
6.88431
7.90036
6.33222
6.44602
3.90776
5.66845
1.95766
2.31834
3.46944
3.42654
0.658066
0.566709
4.05972
5.48491
5.38331
3.21447
1.72654
1.79741
6.86755
7.55103
6.99432
7.19019
7.10898
5.42203
6.45821
6.93931
7.15272
7.33889
7.18906
5.43632
5.34326
4.75869
4.38935
6.16534
9.01877
4.53909
5.82701
5.02176
3.95468
5.5191
6.27185
4.19939
7.99229
8.17059
5.88275
6.37328
2.71789
5.71722
7.11936
1.02251
0.904021
1.90837
4.52608
5.15124
6.9451
7.60125
0.260085
7.28907
7.67683
8.20813
12.0683
13.4668
6.6649
8.89922
6.37498
8.32444
8.19018
10.272
10.6671
5.11441
2.09866
9.64723
10.3477
8.5777
10.0393
11.7692
5.65091
10.7282
10.1645
7.50073
6.95053
6.47129
0.120474
8.66444
11.2572
6.39156
8.95805
7.7895
7.77485
8.74311
8.40468
8.05326
6.37729
2.85814
3.1053
0.374314
5.80086
0
0.261162
0.77685
0.0130575
0.183567
1.81103
2.03045
2.29691
1.85988
2.48132
2.098
1.99627
2.13919
3.15722
1.56817
3.22945
3.06261
2.48178
3.44852
2.85803
3.98923
1.72763
2.51448
2.01797
0.227441
0
1.81193
1.18734
0.200675
2.78978
5.54908
5.55767
1.29486
0.987376
0
2.80115
1.86783
2.39664
2.53031
1.78032
8.23614
4.86825
4.4361
1.7803
3.12924
5.518
5.85893
6.05436
8.34526
4.60453
3.24799
4.52833
9.42387
10.5834
9.92854
6.88321
8.43508
8.30959
6.03689
6.56759
4.21707
6.62555
5.1633
8.7635
3.39008
0.342397
4.70444
4.89044
4.7423
5.94314
5.0618
5.37492
4.58657
9.47289
9.12766
4.96884
9.28311
9.12439
9.56433
9.68884
2.11699
1.78374
3.12119
1.06625
4.9056
3.33275
3.98219
4.35683
2.4673
9.56875
8.88095
10.541
7.95764
9.10283
8.68221
7.36709
7.57901
5.62035
7.92136
6.30532
5.25499
6.63569
3.67118
3.3013
0.867569
5.25299
7.0096
0.830431
7.79274
0.979556
2.24314
0.708449
6.8876
6.81553
6.19813
6.09099
6.21711
6.78183
6.04619
7.0896
5.16876
1.85635
2.60652
6.32146
2.27499
6.16049
1.13143
1.40107
1.1548
3.85748
3.83171
4.94808
4.06127
5.53547
3.4453
1.42091
2.16219
1.16679
5.10744
5.19945
4.00201
4.08863
0.295669
9.0855
10.4076
11.5811
10.4708
6.40739
0.972912
5.10035
7.05266
10.848
8.42505
12.244
4.2914
9.46717
10.1869
9.62225
10.5672
10.3704
10.0334
5.47163
0.829529
6.09911
2.9264
3.02915
5.94496
12.4471
8.15217
6.25847
8.45263
0.0307173
0.438324
0.790307
6.4655
3.48811
0.655148
12.6958
13.222
11.241
10.2201
12.5428
10.8663
11.0581
11.6149
10.5405
10.7794
11.0808
10.7961
8.81053
8.20701
6.00332
4.82453
3.52055
8.58237
8.43636
9.70005
9.04462
9.39984
8.36207
8.71254
3.06987
5.62259
10.4066
5.99525
6.08838
6.78669
7.61469
8.2063
10.4226
9.40961
8.4305
10.8367
7.71552
8.63578
8.24837
8.46273
11.1516
10.8638
11.3603
10.4896
6.40809
8.16396
7.4771
8.1352
9.68373
5.32518
4.66853
6.23854
8.21565
9.25353
9.63577
9.77461
0.0545822
7.2611
4.10962
2.8747
0.588511
6.24099
3.78605
6.39794
8.69913
7.20814
0.553259
2.8544
6.05926
5.3481
6.02894
3.62124
0.360482
4.25284
4.25054
3.00355
2.68368
2.7061
1.46579
0.63652
2.39886
2.05708
2.08837
3.52357
2.80965
2.26189
4.13869
1.20487
0.894775
0.224437
3.02102
4.03309
3.23235
4.612
4.57812
4.618
2.66001
1.55303
2.84753
2.45936
1.4308
1.305
0.774683
0.0654901
6.26946
1.9212
0.303823
5.01011